lammps cell input
642 atoms
1920 bonds
1280 angles
1920 dihedrals

1 atom types
1920 bond types
1280 angle types
1920 dihedral types
0 30 xlo xhi
0 60 ylo yhi
0 60 zlo zhi

Masses

1 0.792738

Bond Coeffs

1 0.0396772 0.624849 0.4545 0.0161829
 2 0.0396772 0.676404 0.4545 0.0189635
 3 0.0396772 0.672704 0.4545 0.0187566
 4 0.0396772 0.676404 0.4545 0.0189635
 5 0.0396772 0.624849 0.4545 0.0161829
 6 0.0396772 0.624849 0.4545 0.0161829
 7 0.0396772 0.676404 0.4545 0.0189635
 8 0.0396772 0.672704 0.4545 0.0187566
 9 0.0396772 0.676404 0.4545 0.0189635
 10 0.0396772 0.624849 0.4545 0.0161829
 11 0.0396772 0.624849 0.4545 0.0161829
 12 0.0396772 0.676404 0.4545 0.0189635
 13 0.0396772 0.672704 0.4545 0.0187566
 14 0.0396772 0.676404 0.4545 0.0189635
 15 0.0396772 0.624849 0.4545 0.0161829
 16 0.0396772 0.624849 0.4545 0.0161829
 17 0.0396772 0.676404 0.4545 0.0189635
 18 0.0396772 0.672704 0.4545 0.0187566
 19 0.0396772 0.676404 0.4545 0.0189635
 20 0.0396772 0.624849 0.4545 0.0161829
 21 0.0396772 0.622274 0.4545 0.0160498
 22 0.0396772 0.811381 0.4545 0.027287
 23 0.0396772 0.811381 0.4545 0.027287
 24 0.0396772 0.700558 0.4545 0.020342
 25 0.0396772 0.700558 0.4545 0.020342
 26 0.0396772 0.622274 0.4545 0.0160498
 27 0.0396772 0.811381 0.4545 0.027287
 28 0.0396772 0.811381 0.4545 0.027287
 29 0.0396772 0.700558 0.4545 0.020342
 30 0.0396772 0.700558 0.4545 0.020342
 31 0.0396772 0.700558 0.4545 0.020342
 32 0.0396772 0.700558 0.4545 0.020342
 33 0.0396772 0.811381 0.4545 0.027287
 34 0.0396772 0.811381 0.4545 0.027287
 35 0.0396772 0.622274 0.4545 0.0160498
 36 0.0396772 0.700558 0.4545 0.020342
 37 0.0396772 0.700558 0.4545 0.020342
 38 0.0396772 0.811381 0.4545 0.027287
 39 0.0396772 0.811381 0.4545 0.027287
 40 0.0396772 0.622274 0.4545 0.0160498
 41 0.0396772 0.71732 0.4545 0.0213271
 42 0.0396772 0.71732 0.4545 0.0213271
 43 0.0396772 0.643488 0.4545 0.0171627
 44 0.0396772 0.643488 0.4545 0.0171627
 45 0.0396772 0.789363 0.4545 0.0258262
 46 0.0396772 0.789363 0.4545 0.0258262
 47 0.0396772 0.643488 0.4545 0.0171627
 48 0.0396772 0.643488 0.4545 0.0171627
 49 0.0396772 0.71732 0.4545 0.0213271
 50 0.0396772 0.71732 0.4545 0.0213271
 51 0.0396772 0.789363 0.4545 0.0258262
 52 0.0396772 0.643488 0.4545 0.0171627
 53 0.0396772 0.643488 0.4545 0.0171627
 54 0.0396772 0.71732 0.4545 0.0213271
 55 0.0396772 0.71732 0.4545 0.0213271
 56 0.0396772 0.71732 0.4545 0.0213271
 57 0.0396772 0.71732 0.4545 0.0213271
 58 0.0396772 0.643488 0.4545 0.0171627
 59 0.0396772 0.643488 0.4545 0.0171627
 60 0.0396772 0.789363 0.4545 0.0258262
 61 0.0396772 0.828831 0.4545 0.0284733
 62 0.0396772 0.828831 0.4545 0.0284733
 63 0.0396772 0.777915 0.4545 0.0250825
 64 0.0396772 0.777915 0.4545 0.0250825
 65 0.0396772 0.777915 0.4545 0.0250825
 66 0.0396772 0.777915 0.4545 0.0250825
 67 0.0396772 0.759308 0.4545 0.0238969
 68 0.0396772 0.675187 0.4545 0.0188953
 69 0.0396772 0.930218 0.4545 0.0358654
 70 0.0396772 0.684628 0.4545 0.0194275
 71 0.0396772 0.910848 0.4545 0.0343873
 72 0.0396772 0.748733 0.4545 0.023236
 73 0.0396772 0.759308 0.4545 0.0238969
 74 0.0396772 0.675187 0.4545 0.0188953
 75 0.0396772 0.930218 0.4545 0.0358654
 76 0.0396772 0.684628 0.4545 0.0194275
 77 0.0396772 0.910848 0.4545 0.0343873
 78 0.0396772 0.748733 0.4545 0.023236
 79 0.0396772 0.759308 0.4545 0.0238969
 80 0.0396772 0.675187 0.4545 0.0188953
 81 0.0396772 0.930218 0.4545 0.0358654
 82 0.0396772 0.684628 0.4545 0.0194275
 83 0.0396772 0.910848 0.4545 0.0343873
 84 0.0396772 0.748733 0.4545 0.023236
 85 0.0396772 0.759308 0.4545 0.0238969
 86 0.0396772 0.675187 0.4545 0.0188953
 87 0.0396772 0.930218 0.4545 0.0358654
 88 0.0396772 0.684628 0.4545 0.0194275
 89 0.0396772 0.910848 0.4545 0.0343873
 90 0.0396772 0.748733 0.4545 0.023236
 91 0.0396772 0.653588 0.4545 0.0177057
 92 0.0396772 0.813755 0.4545 0.0274469
 93 0.0396772 0.716879 0.4545 0.0213009
 94 0.0396772 0.734656 0.4545 0.0223704
 95 0.0396772 0.777495 0.4545 0.0250554
 96 0.0396772 0.637497 0.4545 0.0168447
 97 0.0396772 0.653588 0.4545 0.0177057
 98 0.0396772 0.813755 0.4545 0.0274469
 99 0.0396772 0.716879 0.4545 0.0213009
 100 0.0396772 0.734656 0.4545 0.0223704
 101 0.0396772 0.777495 0.4545 0.0250554
 102 0.0396772 0.637497 0.4545 0.0168447
 103 0.0396772 0.653588 0.4545 0.0177057
 104 0.0396772 0.813755 0.4545 0.0274469
 105 0.0396772 0.716879 0.4545 0.0213009
 106 0.0396772 0.734656 0.4545 0.0223704
 107 0.0396772 0.777495 0.4545 0.0250554
 108 0.0396772 0.637497 0.4545 0.0168447
 109 0.0396772 0.653588 0.4545 0.0177057
 110 0.0396772 0.813755 0.4545 0.0274469
 111 0.0396772 0.716879 0.4545 0.0213009
 112 0.0396772 0.734656 0.4545 0.0223704
 113 0.0396772 0.777495 0.4545 0.0250554
 114 0.0396772 0.637497 0.4545 0.0168447
 115 0.0396772 0.717161 0.4545 0.0213177
 116 0.0396772 0.774965 0.4545 0.0248926
 117 0.0396772 0.812949 0.4545 0.0273926
 118 0.0396772 0.838234 0.4545 0.0291231
 119 0.0396772 0.752966 0.4545 0.0234994
 120 0.0396772 0.710256 0.4545 0.0209091
 121 0.0396772 0.717161 0.4545 0.0213177
 122 0.0396772 0.774965 0.4545 0.0248926
 123 0.0396772 0.812949 0.4545 0.0273926
 124 0.0396772 0.838234 0.4545 0.0291231
 125 0.0396772 0.752966 0.4545 0.0234994
 126 0.0396772 0.710256 0.4545 0.0209091
 127 0.0396772 0.717161 0.4545 0.0213177
 128 0.0396772 0.774965 0.4545 0.0248926
 129 0.0396772 0.812949 0.4545 0.0273926
 130 0.0396772 0.838234 0.4545 0.0291231
 131 0.0396772 0.752966 0.4545 0.0234994
 132 0.0396772 0.710256 0.4545 0.0209091
 133 0.0396772 0.717161 0.4545 0.0213177
 134 0.0396772 0.774965 0.4545 0.0248926
 135 0.0396772 0.812949 0.4545 0.0273926
 136 0.0396772 0.838234 0.4545 0.0291231
 137 0.0396772 0.752966 0.4545 0.0234994
 138 0.0396772 0.710256 0.4545 0.0209091
 139 0.0396772 0.622274 0.4545 0.0160498
 140 0.0396772 0.881772 0.4545 0.0322269
 141 0.0396772 0.881772 0.4545 0.0322269
 142 0.0396772 0.881772 0.4545 0.0322269
 143 0.0396772 0.881772 0.4545 0.0322269
 144 0.0396772 0.622274 0.4545 0.0160498
 145 0.0396772 0.70782 0.4545 0.020766
 146 0.0396772 0.70782 0.4545 0.020766
 147 0.0396772 0.62343 0.4545 0.0161095
 148 0.0396772 0.62343 0.4545 0.0161095
 149 0.0396772 0.70782 0.4545 0.020766
 150 0.0396772 0.70782 0.4545 0.020766
 151 0.0396772 0.70782 0.4545 0.020766
 152 0.0396772 0.70782 0.4545 0.020766
 153 0.0396772 0.62343 0.4545 0.0161095
 154 0.0396772 0.62343 0.4545 0.0161095
 155 0.0396772 0.70782 0.4545 0.020766
 156 0.0396772 0.70782 0.4545 0.020766
 157 0.0396772 0.622274 0.4545 0.0160498
 158 0.0396772 0.881772 0.4545 0.0322269
 159 0.0396772 0.881772 0.4545 0.0322269
 160 0.0396772 0.881772 0.4545 0.0322269
 161 0.0396772 0.881772 0.4545 0.0322269
 162 0.0396772 0.622274 0.4545 0.0160498
 163 0.0396772 0.710256 0.4545 0.0209091
 164 0.0396772 0.752966 0.4545 0.0234994
 165 0.0396772 0.838234 0.4545 0.0291231
 166 0.0396772 0.812949 0.4545 0.0273926
 167 0.0396772 0.774965 0.4545 0.0248926
 168 0.0396772 0.717161 0.4545 0.0213177
 169 0.0396772 0.710256 0.4545 0.0209091
 170 0.0396772 0.752966 0.4545 0.0234994
 171 0.0396772 0.838234 0.4545 0.0291231
 172 0.0396772 0.812949 0.4545 0.0273926
 173 0.0396772 0.774965 0.4545 0.0248926
 174 0.0396772 0.717161 0.4545 0.0213177
 175 0.0396772 0.710256 0.4545 0.0209091
 176 0.0396772 0.752966 0.4545 0.0234994
 177 0.0396772 0.838234 0.4545 0.0291231
 178 0.0396772 0.812949 0.4545 0.0273926
 179 0.0396772 0.774965 0.4545 0.0248926
 180 0.0396772 0.717161 0.4545 0.0213177
 181 0.0396772 0.710256 0.4545 0.0209091
 182 0.0396772 0.752966 0.4545 0.0234994
 183 0.0396772 0.838234 0.4545 0.0291231
 184 0.0396772 0.812949 0.4545 0.0273926
 185 0.0396772 0.774965 0.4545 0.0248926
 186 0.0396772 0.717161 0.4545 0.0213177
 187 0.0396772 0.637497 0.4545 0.0168447
 188 0.0396772 0.777495 0.4545 0.0250554
 189 0.0396772 0.734656 0.4545 0.0223704
 190 0.0396772 0.716879 0.4545 0.0213009
 191 0.0396772 0.813755 0.4545 0.0274469
 192 0.0396772 0.653588 0.4545 0.0177057
 193 0.0396772 0.637497 0.4545 0.0168447
 194 0.0396772 0.777495 0.4545 0.0250554
 195 0.0396772 0.734656 0.4545 0.0223704
 196 0.0396772 0.716879 0.4545 0.0213009
 197 0.0396772 0.813755 0.4545 0.0274469
 198 0.0396772 0.653588 0.4545 0.0177057
 199 0.0396772 0.637497 0.4545 0.0168447
 200 0.0396772 0.777495 0.4545 0.0250554
 201 0.0396772 0.734656 0.4545 0.0223704
 202 0.0396772 0.716879 0.4545 0.0213009
 203 0.0396772 0.813755 0.4545 0.0274469
 204 0.0396772 0.653588 0.4545 0.0177057
 205 0.0396772 0.637497 0.4545 0.0168447
 206 0.0396772 0.777495 0.4545 0.0250554
 207 0.0396772 0.734656 0.4545 0.0223704
 208 0.0396772 0.716879 0.4545 0.0213009
 209 0.0396772 0.813755 0.4545 0.0274469
 210 0.0396772 0.653588 0.4545 0.0177057
 211 0.0396772 0.748733 0.4545 0.023236
 212 0.0396772 0.910848 0.4545 0.0343873
 213 0.0396772 0.684628 0.4545 0.0194275
 214 0.0396772 0.930218 0.4545 0.0358654
 215 0.0396772 0.675187 0.4545 0.0188953
 216 0.0396772 0.759308 0.4545 0.0238969
 217 0.0396772 0.748733 0.4545 0.023236
 218 0.0396772 0.910848 0.4545 0.0343873
 219 0.0396772 0.684628 0.4545 0.0194275
 220 0.0396772 0.930218 0.4545 0.0358654
 221 0.0396772 0.675187 0.4545 0.0188953
 222 0.0396772 0.759308 0.4545 0.0238969
 223 0.0396772 0.748733 0.4545 0.023236
 224 0.0396772 0.910848 0.4545 0.0343873
 225 0.0396772 0.684628 0.4545 0.0194275
 226 0.0396772 0.930218 0.4545 0.0358654
 227 0.0396772 0.675187 0.4545 0.0188953
 228 0.0396772 0.759308 0.4545 0.0238969
 229 0.0396772 0.748733 0.4545 0.023236
 230 0.0396772 0.910848 0.4545 0.0343873
 231 0.0396772 0.684628 0.4545 0.0194275
 232 0.0396772 0.930218 0.4545 0.0358654
 233 0.0396772 0.675187 0.4545 0.0188953
 234 0.0396772 0.759308 0.4545 0.0238969
 235 0.0396772 0.777915 0.4545 0.0250825
 236 0.0396772 0.777915 0.4545 0.0250825
 237 0.0396772 0.777915 0.4545 0.0250825
 238 0.0396772 0.777915 0.4545 0.0250825
 239 0.0396772 0.828831 0.4545 0.0284733
 240 0.0396772 0.828831 0.4545 0.0284733
 241 0.0396772 0.821953 0.4545 0.0280027
 242 0.0396772 0.67763 0.4545 0.0190323
 243 0.0396772 0.67763 0.4545 0.0190323
 244 0.0396772 0.799716 0.4545 0.026508
 245 0.0396772 0.799716 0.4545 0.026508
 246 0.0396772 0.808557 0.4545 0.0270974
 247 0.0396772 0.821953 0.4545 0.0280027
 248 0.0396772 0.67763 0.4545 0.0190323
 249 0.0396772 0.67763 0.4545 0.0190323
 250 0.0396772 0.799716 0.4545 0.026508
 251 0.0396772 0.799716 0.4545 0.026508
 252 0.0396772 0.808557 0.4545 0.0270974
 253 0.0396772 0.774578 0.4545 0.0248677
 254 0.0396772 0.68341 0.4545 0.0193584
 255 0.0396772 0.976591 0.4545 0.0395304
 256 0.0396772 0.847418 0.4545 0.0297647
 257 0.0396772 0.799487 0.4545 0.0264929
 258 0.0396772 0.768189 0.4545 0.0244592
 259 0.0396772 0.774578 0.4545 0.0248677
 260 0.0396772 0.68341 0.4545 0.0193584
 261 0.0396772 0.976591 0.4545 0.0395304
 262 0.0396772 0.847418 0.4545 0.0297647
 263 0.0396772 0.799487 0.4545 0.0264929
 264 0.0396772 0.768189 0.4545 0.0244592
 265 0.0396772 0.774578 0.4545 0.0248677
 266 0.0396772 0.68341 0.4545 0.0193584
 267 0.0396772 0.976591 0.4545 0.0395304
 268 0.0396772 0.847418 0.4545 0.0297647
 269 0.0396772 0.799487 0.4545 0.0264929
 270 0.0396772 0.768189 0.4545 0.0244592
 271 0.0396772 0.774578 0.4545 0.0248677
 272 0.0396772 0.68341 0.4545 0.0193584
 273 0.0396772 0.976591 0.4545 0.0395304
 274 0.0396772 0.847418 0.4545 0.0297647
 275 0.0396772 0.799487 0.4545 0.0264929
 276 0.0396772 0.768189 0.4545 0.0244592
 277 0.0396772 0.784864 0.4545 0.0255326
 278 0.0396772 0.831711 0.4545 0.0286716
 279 0.0396772 0.653817 0.4545 0.0177181
 280 0.0396772 0.66466 0.4545 0.0183107
 281 0.0396772 0.907212 0.4545 0.0341133
 282 0.0396772 0.721939 0.4545 0.0216027
 283 0.0396772 0.784864 0.4545 0.0255326
 284 0.0396772 0.831711 0.4545 0.0286716
 285 0.0396772 0.653817 0.4545 0.0177181
 286 0.0396772 0.66466 0.4545 0.0183107
 287 0.0396772 0.907212 0.4545 0.0341133
 288 0.0396772 0.721939 0.4545 0.0216027
 289 0.0396772 0.784864 0.4545 0.0255326
 290 0.0396772 0.831711 0.4545 0.0286716
 291 0.0396772 0.653817 0.4545 0.0177181
 292 0.0396772 0.66466 0.4545 0.0183107
 293 0.0396772 0.907212 0.4545 0.0341133
 294 0.0396772 0.721939 0.4545 0.0216027
 295 0.0396772 0.784864 0.4545 0.0255326
 296 0.0396772 0.831711 0.4545 0.0286716
 297 0.0396772 0.653817 0.4545 0.0177181
 298 0.0396772 0.66466 0.4545 0.0183107
 299 0.0396772 0.907212 0.4545 0.0341133
 300 0.0396772 0.721939 0.4545 0.0216027
 301 0.0396772 0.80298 0.4545 0.0267249
 302 0.0396772 0.80298 0.4545 0.0267249
 303 0.0396772 0.94024 0.4545 0.0366424
 304 0.0396772 0.94024 0.4545 0.0366424
 305 0.0396772 0.719992 0.4545 0.0214863
 306 0.0396772 0.719992 0.4545 0.0214863
 307 0.0396772 0.80298 0.4545 0.0267249
 308 0.0396772 0.80298 0.4545 0.0267249
 309 0.0396772 0.94024 0.4545 0.0366424
 310 0.0396772 0.94024 0.4545 0.0366424
 311 0.0396772 0.719992 0.4545 0.0214863
 312 0.0396772 0.719992 0.4545 0.0214863
 313 0.0396772 0.873105 0.4545 0.0315965
 314 0.0396772 0.695262 0.4545 0.0200356
 315 0.0396772 0.726061 0.4545 0.02185
 316 0.0396772 0.669742 0.4545 0.0185918
 317 0.0396772 0.729609 0.4545 0.0220641
 318 0.0396772 0.673429 0.4545 0.0187971
 319 0.0396772 0.873105 0.4545 0.0315965
 320 0.0396772 0.695262 0.4545 0.0200356
 321 0.0396772 0.726061 0.4545 0.02185
 322 0.0396772 0.669742 0.4545 0.0185918
 323 0.0396772 0.729609 0.4545 0.0220641
 324 0.0396772 0.673429 0.4545 0.0187971
 325 0.0396772 0.873105 0.4545 0.0315965
 326 0.0396772 0.695262 0.4545 0.0200356
 327 0.0396772 0.726061 0.4545 0.02185
 328 0.0396772 0.669742 0.4545 0.0185918
 329 0.0396772 0.729609 0.4545 0.0220641
 330 0.0396772 0.673429 0.4545 0.0187971
 331 0.0396772 0.873105 0.4545 0.0315965
 332 0.0396772 0.695262 0.4545 0.0200356
 333 0.0396772 0.726061 0.4545 0.02185
 334 0.0396772 0.669742 0.4545 0.0185918
 335 0.0396772 0.729609 0.4545 0.0220641
 336 0.0396772 0.673429 0.4545 0.0187971
 337 0.0396772 0.717067 0.4545 0.0213121
 338 0.0396772 0.692324 0.4545 0.0198667
 339 0.0396772 0.965502 0.4545 0.0386378
 340 0.0396772 0.838668 0.4545 0.0291532
 341 0.0396772 0.697753 0.4545 0.0201794
 342 0.0396772 0.754387 0.4545 0.0235882
 343 0.0396772 0.717067 0.4545 0.0213121
 344 0.0396772 0.692324 0.4545 0.0198667
 345 0.0396772 0.965502 0.4545 0.0386378
 346 0.0396772 0.838668 0.4545 0.0291532
 347 0.0396772 0.697753 0.4545 0.0201794
 348 0.0396772 0.754387 0.4545 0.0235882
 349 0.0396772 0.717067 0.4545 0.0213121
 350 0.0396772 0.692324 0.4545 0.0198667
 351 0.0396772 0.965502 0.4545 0.0386378
 352 0.0396772 0.838668 0.4545 0.0291532
 353 0.0396772 0.697753 0.4545 0.0201794
 354 0.0396772 0.754387 0.4545 0.0235882
 355 0.0396772 0.717067 0.4545 0.0213121
 356 0.0396772 0.692324 0.4545 0.0198667
 357 0.0396772 0.965502 0.4545 0.0386378
 358 0.0396772 0.838668 0.4545 0.0291532
 359 0.0396772 0.697753 0.4545 0.0201794
 360 0.0396772 0.754387 0.4545 0.0235882
 361 0.0396772 0.703973 0.4545 0.0205408
 362 0.0396772 0.883495 0.4545 0.032353
 363 0.0396772 0.686066 0.4545 0.0195092
 364 0.0396772 0.790722 0.4545 0.0259152
 365 0.0396772 0.850215 0.4545 0.0299615
 366 0.0396772 0.769725 0.4545 0.0245571
 367 0.0396772 0.703973 0.4545 0.0205408
 368 0.0396772 0.883495 0.4545 0.032353
 369 0.0396772 0.686066 0.4545 0.0195092
 370 0.0396772 0.790722 0.4545 0.0259152
 371 0.0396772 0.850215 0.4545 0.0299615
 372 0.0396772 0.769725 0.4545 0.0245571
 373 0.0396772 0.703973 0.4545 0.0205408
 374 0.0396772 0.883495 0.4545 0.032353
 375 0.0396772 0.686066 0.4545 0.0195092
 376 0.0396772 0.790722 0.4545 0.0259152
 377 0.0396772 0.850215 0.4545 0.0299615
 378 0.0396772 0.769725 0.4545 0.0245571
 379 0.0396772 0.703973 0.4545 0.0205408
 380 0.0396772 0.883495 0.4545 0.032353
 381 0.0396772 0.686066 0.4545 0.0195092
 382 0.0396772 0.790722 0.4545 0.0259152
 383 0.0396772 0.850215 0.4545 0.0299615
 384 0.0396772 0.769725 0.4545 0.0245571
 385 0.0396772 0.73745 0.4545 0.0225409
 386 0.0396772 0.823463 0.4545 0.0281057
 387 0.0396772 0.812492 0.4545 0.0273618
 388 0.0396772 0.71653 0.4545 0.0212802
 389 0.0396772 0.917622 0.4545 0.0349007
 390 0.0396772 0.726557 0.4545 0.0218799
 391 0.0396772 0.73745 0.4545 0.0225409
 392 0.0396772 0.823463 0.4545 0.0281057
 393 0.0396772 0.812492 0.4545 0.0273618
 394 0.0396772 0.71653 0.4545 0.0212802
 395 0.0396772 0.917622 0.4545 0.0349007
 396 0.0396772 0.726557 0.4545 0.0218799
 397 0.0396772 0.73745 0.4545 0.0225409
 398 0.0396772 0.823463 0.4545 0.0281057
 399 0.0396772 0.812492 0.4545 0.0273618
 400 0.0396772 0.71653 0.4545 0.0212802
 401 0.0396772 0.917622 0.4545 0.0349007
 402 0.0396772 0.726557 0.4545 0.0218799
 403 0.0396772 0.73745 0.4545 0.0225409
 404 0.0396772 0.823463 0.4545 0.0281057
 405 0.0396772 0.812492 0.4545 0.0273618
 406 0.0396772 0.71653 0.4545 0.0212802
 407 0.0396772 0.917622 0.4545 0.0349007
 408 0.0396772 0.726557 0.4545 0.0218799
 409 0.0396772 0.702035 0.4545 0.0204279
 410 0.0396772 0.702035 0.4545 0.0204279
 411 0.0396772 0.707354 0.4545 0.0207386
 412 0.0396772 0.707354 0.4545 0.0207386
 413 0.0396772 0.774099 0.4545 0.024837
 414 0.0396772 0.774099 0.4545 0.024837
 415 0.0396772 0.702035 0.4545 0.0204279
 416 0.0396772 0.702035 0.4545 0.0204279
 417 0.0396772 0.707354 0.4545 0.0207386
 418 0.0396772 0.707354 0.4545 0.0207386
 419 0.0396772 0.774099 0.4545 0.024837
 420 0.0396772 0.774099 0.4545 0.024837
 421 0.0396772 0.748632 0.4545 0.0232297
 422 0.0396772 0.729305 0.4545 0.0220458
 423 0.0396772 0.805027 0.4545 0.0268613
 424 0.0396772 0.792661 0.4545 0.0260424
 425 0.0396772 0.88592 0.4545 0.0325309
 426 0.0396772 0.64418 0.4545 0.0171997
 427 0.0396772 0.748632 0.4545 0.0232297
 428 0.0396772 0.729305 0.4545 0.0220458
 429 0.0396772 0.805027 0.4545 0.0268613
 430 0.0396772 0.792661 0.4545 0.0260424
 431 0.0396772 0.88592 0.4545 0.0325309
 432 0.0396772 0.64418 0.4545 0.0171997
 433 0.0396772 0.748632 0.4545 0.0232297
 434 0.0396772 0.729305 0.4545 0.0220458
 435 0.0396772 0.805027 0.4545 0.0268613
 436 0.0396772 0.792661 0.4545 0.0260424
 437 0.0396772 0.88592 0.4545 0.0325309
 438 0.0396772 0.64418 0.4545 0.0171997
 439 0.0396772 0.748632 0.4545 0.0232297
 440 0.0396772 0.729305 0.4545 0.0220458
 441 0.0396772 0.805027 0.4545 0.0268613
 442 0.0396772 0.792661 0.4545 0.0260424
 443 0.0396772 0.88592 0.4545 0.0325309
 444 0.0396772 0.64418 0.4545 0.0171997
 445 0.0396772 0.751871 0.4545 0.0234311
 446 0.0396772 0.883154 0.4545 0.032328
 447 0.0396772 0.758442 0.4545 0.0238425
 448 0.0396772 0.785485 0.4545 0.025573
 449 0.0396772 0.746737 0.4545 0.0231122
 450 0.0396772 0.646398 0.4545 0.0173183
 451 0.0396772 0.751871 0.4545 0.0234311
 452 0.0396772 0.883154 0.4545 0.032328
 453 0.0396772 0.758442 0.4545 0.0238425
 454 0.0396772 0.785485 0.4545 0.025573
 455 0.0396772 0.746737 0.4545 0.0231122
 456 0.0396772 0.646398 0.4545 0.0173183
 457 0.0396772 0.751871 0.4545 0.0234311
 458 0.0396772 0.883154 0.4545 0.032328
 459 0.0396772 0.758442 0.4545 0.0238425
 460 0.0396772 0.785485 0.4545 0.025573
 461 0.0396772 0.746737 0.4545 0.0231122
 462 0.0396772 0.646398 0.4545 0.0173183
 463 0.0396772 0.751871 0.4545 0.0234311
 464 0.0396772 0.883154 0.4545 0.032328
 465 0.0396772 0.758442 0.4545 0.0238425
 466 0.0396772 0.785485 0.4545 0.025573
 467 0.0396772 0.746737 0.4545 0.0231122
 468 0.0396772 0.646398 0.4545 0.0173183
 469 0.0396772 0.622274 0.4545 0.0160498
 470 0.0396772 0.893784 0.4545 0.0331109
 471 0.0396772 0.893784 0.4545 0.0331109
 472 0.0396772 0.83212 0.4545 0.0286998
 473 0.0396772 0.83212 0.4545 0.0286998
 474 0.0396772 0.622274 0.4545 0.0160498
 475 0.0396772 0.622274 0.4545 0.0160498
 476 0.0396772 0.893784 0.4545 0.0331109
 477 0.0396772 0.893784 0.4545 0.0331109
 478 0.0396772 0.83212 0.4545 0.0286998
 479 0.0396772 0.83212 0.4545 0.0286998
 480 0.0396772 0.622274 0.4545 0.0160498
 481 0.0396772 0.626711 0.4545 0.0162795
 482 0.0396772 0.716608 0.4545 0.0212848
 483 0.0396772 0.678158 0.4545 0.019062
 484 0.0396772 0.776576 0.4545 0.0249962
 485 0.0396772 0.622339 0.4545 0.0160532
 486 0.0396772 0.765302 0.4545 0.0242757
 487 0.0396772 0.626711 0.4545 0.0162795
 488 0.0396772 0.716608 0.4545 0.0212848
 489 0.0396772 0.678158 0.4545 0.019062
 490 0.0396772 0.776576 0.4545 0.0249962
 491 0.0396772 0.622339 0.4545 0.0160532
 492 0.0396772 0.765302 0.4545 0.0242757
 493 0.0396772 0.748911 0.4545 0.023247
 494 0.0396772 0.745263 0.4545 0.0230211
 495 0.0396772 0.735268 0.4545 0.0224077
 496 0.0396772 0.658618 0.4545 0.0179793
 497 0.0396772 0.646835 0.4545 0.0173417
 498 0.0396772 0.720942 0.4545 0.021543
 499 0.0396772 0.748911 0.4545 0.023247
 500 0.0396772 0.745263 0.4545 0.0230211
 501 0.0396772 0.735268 0.4545 0.0224077
 502 0.0396772 0.658618 0.4545 0.0179793
 503 0.0396772 0.646835 0.4545 0.0173417
 504 0.0396772 0.720942 0.4545 0.021543
 505 0.0396772 0.748911 0.4545 0.023247
 506 0.0396772 0.745263 0.4545 0.0230211
 507 0.0396772 0.735268 0.4545 0.0224077
 508 0.0396772 0.658618 0.4545 0.0179793
 509 0.0396772 0.720942 0.4545 0.021543
 510 0.0396772 0.646835 0.4545 0.0173417
 511 0.0396772 0.748911 0.4545 0.023247
 512 0.0396772 0.745263 0.4545 0.0230211
 513 0.0396772 0.735268 0.4545 0.0224077
 514 0.0396772 0.658618 0.4545 0.0179793
 515 0.0396772 0.720942 0.4545 0.021543
 516 0.0396772 0.646835 0.4545 0.0173417
 517 0.0396772 0.626711 0.4545 0.0162795
 518 0.0396772 0.716608 0.4545 0.0212848
 519 0.0396772 0.678158 0.4545 0.019062
 520 0.0396772 0.776576 0.4545 0.0249962
 521 0.0396772 0.765302 0.4545 0.0242757
 522 0.0396772 0.622339 0.4545 0.0160532
 523 0.0396772 0.626711 0.4545 0.0162795
 524 0.0396772 0.716608 0.4545 0.0212848
 525 0.0396772 0.678158 0.4545 0.019062
 526 0.0396772 0.776576 0.4545 0.0249962
 527 0.0396772 0.765302 0.4545 0.0242757
 528 0.0396772 0.622339 0.4545 0.0160532
 529 0.0396772 0.643983 0.4545 0.0171892
 530 0.0396772 0.859158 0.4545 0.0305951
 531 0.0396772 0.825327 0.4545 0.0282331
 532 0.0396772 0.874046 0.4545 0.0316647
 533 0.0396772 0.912433 0.4545 0.0345071
 534 0.0396772 0.733644 0.4545 0.0223088
 535 0.0396772 0.643983 0.4545 0.0171892
 536 0.0396772 0.859158 0.4545 0.0305951
 537 0.0396772 0.825327 0.4545 0.0282331
 538 0.0396772 0.874046 0.4545 0.0316647
 539 0.0396772 0.912433 0.4545 0.0345071
 540 0.0396772 0.733644 0.4545 0.0223088
 541 0.0396772 0.643966 0.4545 0.0171883
 542 0.0396772 0.728033 0.4545 0.0219689
 543 0.0396772 0.809408 0.4545 0.0271545
 544 0.0396772 0.721176 0.4545 0.0215571
 545 0.0396772 0.701857 0.4545 0.0204176
 546 0.0396772 0.726082 0.4545 0.0218514
 547 0.0396772 0.643966 0.4545 0.0171883
 548 0.0396772 0.728033 0.4545 0.0219689
 549 0.0396772 0.809408 0.4545 0.0271545
 550 0.0396772 0.721176 0.4545 0.0215571
 551 0.0396772 0.701857 0.4545 0.0204176
 552 0.0396772 0.726082 0.4545 0.0218514
 553 0.0396772 0.643966 0.4545 0.0171883
 554 0.0396772 0.728033 0.4545 0.0219689
 555 0.0396772 0.809408 0.4545 0.0271545
 556 0.0396772 0.701857 0.4545 0.0204176
 557 0.0396772 0.721176 0.4545 0.0215571
 558 0.0396772 0.726082 0.4545 0.0218514
 559 0.0396772 0.643966 0.4545 0.0171883
 560 0.0396772 0.728033 0.4545 0.0219689
 561 0.0396772 0.809408 0.4545 0.0271545
 562 0.0396772 0.701857 0.4545 0.0204176
 563 0.0396772 0.721176 0.4545 0.0215571
 564 0.0396772 0.726082 0.4545 0.0218514
 565 0.0396772 0.643983 0.4545 0.0171892
 566 0.0396772 0.859158 0.4545 0.0305951
 567 0.0396772 0.825327 0.4545 0.0282331
 568 0.0396772 0.912433 0.4545 0.0345071
 569 0.0396772 0.874046 0.4545 0.0316647
 570 0.0396772 0.733644 0.4545 0.0223088
 571 0.0396772 0.643983 0.4545 0.0171892
 572 0.0396772 0.859158 0.4545 0.0305951
 573 0.0396772 0.825327 0.4545 0.0282331
 574 0.0396772 0.912433 0.4545 0.0345071
 575 0.0396772 0.874046 0.4545 0.0316647
 576 0.0396772 0.733644 0.4545 0.0223088
 577 0.0396772 0.706599 0.4545 0.0206944
 578 0.0396772 0.888018 0.4545 0.0326851
 579 0.0396772 0.74523 0.4545 0.023019
 580 0.0396772 0.74523 0.4545 0.023019
 581 0.0396772 0.888018 0.4545 0.0326851
 582 0.0396772 0.706599 0.4545 0.0206944
 583 0.0396772 0.706599 0.4545 0.0206944
 584 0.0396772 0.888018 0.4545 0.0326851
 585 0.0396772 0.74523 0.4545 0.023019
 586 0.0396772 0.74523 0.4545 0.023019
 587 0.0396772 0.888018 0.4545 0.0326851
 588 0.0396772 0.706599 0.4545 0.0206944
 589 0.0396772 0.644207 0.4545 0.0172012
 590 0.0396772 0.740378 0.4545 0.0227202
 591 0.0396772 0.649509 0.4545 0.0174854
 592 0.0396772 0.63247 0.4545 0.0165801
 593 0.0396772 0.740378 0.4545 0.0227202
 594 0.0396772 0.644207 0.4545 0.0172012
 595 0.0396772 0.644207 0.4545 0.0172012
 596 0.0396772 0.740378 0.4545 0.0227202
 597 0.0396772 0.649509 0.4545 0.0174854
 598 0.0396772 0.63247 0.4545 0.0165801
 599 0.0396772 0.740378 0.4545 0.0227202
 600 0.0396772 0.644207 0.4545 0.0172012
 601 0.0396772 0.644207 0.4545 0.0172012
 602 0.0396772 0.740378 0.4545 0.0227202
 603 0.0396772 0.63247 0.4545 0.0165801
 604 0.0396772 0.649509 0.4545 0.0174854
 605 0.0396772 0.740378 0.4545 0.0227202
 606 0.0396772 0.644207 0.4545 0.0172012
 607 0.0396772 0.644207 0.4545 0.0172012
 608 0.0396772 0.740378 0.4545 0.0227202
 609 0.0396772 0.63247 0.4545 0.0165801
 610 0.0396772 0.649509 0.4545 0.0174854
 611 0.0396772 0.740378 0.4545 0.0227202
 612 0.0396772 0.644207 0.4545 0.0172012
 613 0.0396772 0.706599 0.4545 0.0206944
 614 0.0396772 0.888018 0.4545 0.0326851
 615 0.0396772 0.74523 0.4545 0.023019
 616 0.0396772 0.74523 0.4545 0.023019
 617 0.0396772 0.888018 0.4545 0.0326851
 618 0.0396772 0.706599 0.4545 0.0206944
 619 0.0396772 0.706599 0.4545 0.0206944
 620 0.0396772 0.888018 0.4545 0.0326851
 621 0.0396772 0.74523 0.4545 0.023019
 622 0.0396772 0.74523 0.4545 0.023019
 623 0.0396772 0.888018 0.4545 0.0326851
 624 0.0396772 0.706599 0.4545 0.0206944
 625 0.0396772 0.733644 0.4545 0.0223088
 626 0.0396772 0.874046 0.4545 0.0316647
 627 0.0396772 0.912433 0.4545 0.0345071
 628 0.0396772 0.825327 0.4545 0.0282331
 629 0.0396772 0.859158 0.4545 0.0305951
 630 0.0396772 0.643983 0.4545 0.0171892
 631 0.0396772 0.733644 0.4545 0.0223088
 632 0.0396772 0.874046 0.4545 0.0316647
 633 0.0396772 0.912433 0.4545 0.0345071
 634 0.0396772 0.825327 0.4545 0.0282331
 635 0.0396772 0.859158 0.4545 0.0305951
 636 0.0396772 0.643983 0.4545 0.0171892
 637 0.0396772 0.726082 0.4545 0.0218514
 638 0.0396772 0.721176 0.4545 0.0215571
 639 0.0396772 0.701857 0.4545 0.0204176
 640 0.0396772 0.809408 0.4545 0.0271545
 641 0.0396772 0.728033 0.4545 0.0219689
 642 0.0396772 0.643966 0.4545 0.0171883
 643 0.0396772 0.726082 0.4545 0.0218514
 644 0.0396772 0.721176 0.4545 0.0215571
 645 0.0396772 0.701857 0.4545 0.0204176
 646 0.0396772 0.809408 0.4545 0.0271545
 647 0.0396772 0.728033 0.4545 0.0219689
 648 0.0396772 0.643966 0.4545 0.0171883
 649 0.0396772 0.726082 0.4545 0.0218514
 650 0.0396772 0.701857 0.4545 0.0204176
 651 0.0396772 0.721176 0.4545 0.0215571
 652 0.0396772 0.809408 0.4545 0.0271545
 653 0.0396772 0.728033 0.4545 0.0219689
 654 0.0396772 0.643966 0.4545 0.0171883
 655 0.0396772 0.726082 0.4545 0.0218514
 656 0.0396772 0.701857 0.4545 0.0204176
 657 0.0396772 0.721176 0.4545 0.0215571
 658 0.0396772 0.809408 0.4545 0.0271545
 659 0.0396772 0.728033 0.4545 0.0219689
 660 0.0396772 0.643966 0.4545 0.0171883
 661 0.0396772 0.733644 0.4545 0.0223088
 662 0.0396772 0.912433 0.4545 0.0345071
 663 0.0396772 0.874046 0.4545 0.0316647
 664 0.0396772 0.825327 0.4545 0.0282331
 665 0.0396772 0.859158 0.4545 0.0305951
 666 0.0396772 0.643983 0.4545 0.0171892
 667 0.0396772 0.733644 0.4545 0.0223088
 668 0.0396772 0.912433 0.4545 0.0345071
 669 0.0396772 0.874046 0.4545 0.0316647
 670 0.0396772 0.825327 0.4545 0.0282331
 671 0.0396772 0.859158 0.4545 0.0305951
 672 0.0396772 0.643983 0.4545 0.0171892
 673 0.0396772 0.622339 0.4545 0.0160532
 674 0.0396772 0.765302 0.4545 0.0242757
 675 0.0396772 0.776576 0.4545 0.0249962
 676 0.0396772 0.678158 0.4545 0.019062
 677 0.0396772 0.716608 0.4545 0.0212848
 678 0.0396772 0.626711 0.4545 0.0162795
 679 0.0396772 0.622339 0.4545 0.0160532
 680 0.0396772 0.765302 0.4545 0.0242757
 681 0.0396772 0.776576 0.4545 0.0249962
 682 0.0396772 0.678158 0.4545 0.019062
 683 0.0396772 0.716608 0.4545 0.0212848
 684 0.0396772 0.626711 0.4545 0.0162795
 685 0.0396772 0.646835 0.4545 0.0173417
 686 0.0396772 0.720942 0.4545 0.021543
 687 0.0396772 0.658618 0.4545 0.0179793
 688 0.0396772 0.735268 0.4545 0.0224077
 689 0.0396772 0.745263 0.4545 0.0230211
 690 0.0396772 0.748911 0.4545 0.023247
 691 0.0396772 0.646835 0.4545 0.0173417
 692 0.0396772 0.720942 0.4545 0.021543
 693 0.0396772 0.658618 0.4545 0.0179793
 694 0.0396772 0.735268 0.4545 0.0224077
 695 0.0396772 0.745263 0.4545 0.0230211
 696 0.0396772 0.748911 0.4545 0.023247
 697 0.0396772 0.720942 0.4545 0.021543
 698 0.0396772 0.646835 0.4545 0.0173417
 699 0.0396772 0.658618 0.4545 0.0179793
 700 0.0396772 0.735268 0.4545 0.0224077
 701 0.0396772 0.745263 0.4545 0.0230211
 702 0.0396772 0.748911 0.4545 0.023247
 703 0.0396772 0.720942 0.4545 0.021543
 704 0.0396772 0.646835 0.4545 0.0173417
 705 0.0396772 0.658618 0.4545 0.0179793
 706 0.0396772 0.735268 0.4545 0.0224077
 707 0.0396772 0.745263 0.4545 0.0230211
 708 0.0396772 0.748911 0.4545 0.023247
 709 0.0396772 0.765302 0.4545 0.0242757
 710 0.0396772 0.622339 0.4545 0.0160532
 711 0.0396772 0.776576 0.4545 0.0249962
 712 0.0396772 0.678158 0.4545 0.019062
 713 0.0396772 0.716608 0.4545 0.0212848
 714 0.0396772 0.626711 0.4545 0.0162795
 715 0.0396772 0.765302 0.4545 0.0242757
 716 0.0396772 0.622339 0.4545 0.0160532
 717 0.0396772 0.776576 0.4545 0.0249962
 718 0.0396772 0.678158 0.4545 0.019062
 719 0.0396772 0.716608 0.4545 0.0212848
 720 0.0396772 0.626711 0.4545 0.0162795
 721 0.0396772 0.622274 0.4545 0.0160498
 722 0.0396772 0.83212 0.4545 0.0286998
 723 0.0396772 0.83212 0.4545 0.0286998
 724 0.0396772 0.893784 0.4545 0.0331109
 725 0.0396772 0.893784 0.4545 0.0331109
 726 0.0396772 0.622274 0.4545 0.0160498
 727 0.0396772 0.622274 0.4545 0.0160498
 728 0.0396772 0.83212 0.4545 0.0286998
 729 0.0396772 0.83212 0.4545 0.0286998
 730 0.0396772 0.893784 0.4545 0.0331109
 731 0.0396772 0.893784 0.4545 0.0331109
 732 0.0396772 0.622274 0.4545 0.0160498
 733 0.0396772 0.646398 0.4545 0.0173183